                         Program Version 5.0.3 -  RELEASE  -
|  1> ! revPBE def2-SVP def2/J CPCMC(Toluene) Hirshfeld CHELPG RIJONX D3 Energy
|  2> %pal
|  3> nprocs 1
|  4> end
|  5> %maxcore 3000
|  6> %elprop
|  7> Polar 1
|  8> Quadrupole True
|  9> end
| 10> %TDDFT
| 11> NRoots 15
| 12> Triplets True
| 13> end
| 14> * xyzfile 0 1 /home/sk77/PycharmProjects/omg_database_publication/run_calculation/calculation_results/pareto_greedy/0/reaction_10005258/opt_n_1/conformer_3/geometry.xtbopt.xyz
| 15>
| 16> # for cosmo solvent -> Flory Huggins
| 17> $new_job
| 18> ! revPBE def2-SVP def2/J CPCMC Hirshfeld CHELPG RIJONX D3 Energy
| 19> %base "/home/sk77/PycharmProjects/omg_database_publication/run_calculation/calculation_results/pareto_greedy/0/reaction_10005258/opt_n_1/conformer_3/property_cosmo"
| 20> %pal
| 21> nprocs 1
| 22> end
| 23> %maxcore 3000
| 24> * xyzfile 0 1 /home/sk77/PycharmProjects/omg_database_publication/run_calculation/calculation_results/pareto_greedy/0/reaction_10005258/opt_n_1/conformer_3/geometry.xtbopt.xyz
| 25>
| 26>                          ****END OF INPUT****
 Total Charge           Charge          ....    0
 Multiplicity           Mult            ....    1
 Number of Electrons    NEL             ....  236

-----------------------------------------------------------------------------
         ABSORPTION SPECTRUM VIA TRANSITION ELECTRIC DIPOLE MOMENTS
-----------------------------------------------------------------------------
State   Energy    Wavelength  fosc         T2        TX        TY        TZ
        (cm-1)      (nm)                 (au**2)    (au)      (au)      (au)
-----------------------------------------------------------------------------
   1   17698.9    565.0   0.048786232   0.90746   0.79653   0.13065  -0.50589
   2   19733.7    506.7   0.005760746   0.09611  -0.29171   0.07972   0.06824
   3   20294.2    492.8   0.005446850   0.08836   0.21730  -0.19489   0.05619
   4   23352.3    428.2   0.014499326   0.20441   0.31818   0.22296  -0.23120
   5   23868.1    419.0   0.007647849   0.10549  -0.22087   0.19153  -0.14149
   6   25558.1    391.3   0.000726847   0.00936  -0.06763   0.06662  -0.01871
   7   27275.0    366.6   0.005162174   0.06231  -0.16086   0.09385  -0.16621
   8   28023.6    356.8   0.043064201   0.50590   0.44346  -0.52636   0.17943
   9   28155.8    355.2   0.016789493   0.19631  -0.22696   0.35124  -0.14639
  10   28774.1    347.5   0.004410879   0.05047   0.04144  -0.17767   0.13108
  11   28800.9    347.2   0.007366032   0.08420  -0.11647  -0.11764   0.23832
  12   30292.4    330.1   0.001317515   0.01432  -0.05280   0.09263  -0.05432
  13   31293.2    319.6   0.000885979   0.00932  -0.00957  -0.05969   0.07528
  14   31422.9    318.2   0.000732018   0.00767   0.02978   0.04336   0.07001
  15   31684.6    315.6   0.001418100   0.01473   0.10557   0.02947  -0.05217
  16   16542.5    604.5   spin forbidden (mult=3)
  17   19133.2    522.7   spin forbidden (mult=3)
  18   19914.8    502.1   spin forbidden (mult=3)
  19   22188.4    450.7   spin forbidden (mult=3)
  20   23200.9    431.0   spin forbidden (mult=3)
  21   23591.6    423.9   spin forbidden (mult=3)
  22   24362.0    410.5   spin forbidden (mult=3)
  23   26542.2    376.8   spin forbidden (mult=3)
  24   26835.3    372.6   spin forbidden (mult=3)
  25   27266.0    366.8   spin forbidden (mult=3)
  26   27513.2    363.5   spin forbidden (mult=3)
  27   27836.1    359.2   spin forbidden (mult=3)
  28   28653.5    349.0   spin forbidden (mult=3)
  29   29411.6    340.0   spin forbidden (mult=3)
  30   29772.8    335.9   spin forbidden (mult=3)

Dispersion correction           -0.152251981
FINAL SINGLE POINT ENERGY     -1955.227867138726

CARTESIAN COORDINATES (ANGSTROEM)
---------------------------------
  H      2.687670   -2.483568   -2.026780
  C      2.989321   -2.681156   -1.012987
  C      2.398615   -1.945199    0.007584
  O      1.502450   -0.966452   -0.385435
  C      0.351607   -0.747268    0.278146
  O     -0.032084   -1.424840    1.204717
  C     -0.388536    0.410720   -0.276668
  C      0.100311    1.134308   -1.359851
  H      1.024755    0.829876   -1.817239
  C     -0.611538    2.239653   -1.819847
  C     -0.159380    3.078415   -2.967016
  O     -0.827286    4.022162   -3.351626
  C      1.138920    2.706743   -3.620333
  H      1.942417    2.741670   -2.889534
  H      1.074537    1.696309   -4.014733
  H      1.349330    3.401078   -4.428907
  C     -1.803814    2.591678   -1.194166
  H     -2.332377    3.457772   -1.565559
  C     -2.314655    1.856626   -0.124515
  N     -3.497727    2.298922    0.450651
  H     -3.756684    3.237826    0.169935
  C     -4.437748    1.627037    1.162122
  S     -4.446614   -0.034906    1.406246
  N     -5.443620    2.350263    1.659421
  H     -6.151458    1.825341    2.150974
  C     -5.633241    3.787727    1.568101
  H     -4.738449    4.295835    1.941725
  H     -5.796842    4.073211    0.522415
  C     -6.840950    4.195065    2.399147
  H     -7.736438    3.698327    2.035118
  H     -6.691147    3.929255    3.442011
  H     -6.987950    5.268442    2.331877
  C     -1.586531    0.766205    0.340265
  H     -1.929553    0.182076    1.178456
  C      2.742032   -2.142340    1.333454
  H      2.290471   -1.580168    2.130932
  C      3.685227   -3.119366    1.625315
  O      3.966141   -3.259953    3.002889
  C      4.782363   -4.192491    3.427926
  F      6.054135   -4.070631    2.997272
  F      4.839768   -4.146959    4.759473
  F      4.423169   -5.450541    3.109862
  C      4.288333   -3.867889    0.640914
  H      5.023051   -4.628351    0.845859
  C      3.941368   -3.644389   -0.700377
  O      4.583138   -4.412247   -1.599562
  C      4.285480   -4.244960   -2.978802
  H      3.237485   -4.471953   -3.182774
  H      4.519808   -3.231077   -3.307939
  H      4.922738   -4.955845   -3.498169

 Multiplicity           Mult            ....    1
 Number of Electrons    NEL             ....  236
 Basis Dimension        Dim             ....  533

ORBITAL ENERGIES
----------------

  NO   OCC          E(Eh)            E(eV)
   0   2.0000     -87.988521     -2394.2894
   1   2.0000     -24.309380      -661.4919
   2   2.0000     -24.307742      -661.4473
   3   2.0000     -24.306718      -661.4194
   4   2.0000     -18.850460      -512.9471
   5   2.0000     -18.838898      -512.6325
   6   2.0000     -18.812196      -511.9059
   7   2.0000     -18.769008      -510.7307
   8   2.0000     -18.762661      -510.5580
   9   2.0000     -14.061119      -382.6225
  10   2.0000     -14.043328      -382.1384
  11   2.0000     -10.191435      -277.3231
  12   2.0000     -10.041102      -273.2323
  13   2.0000     -10.014178      -272.4996
  14   2.0000      -9.993917      -271.9483
  15   2.0000      -9.993086      -271.9257
  16   2.0000      -9.986289      -271.7407
  17   2.0000      -9.981711      -271.6162
  18   2.0000      -9.968420      -271.2545
  19   2.0000      -9.954935      -270.8875
  20   2.0000      -9.946721      -270.6641
  21   2.0000      -9.932291      -270.2714
  22   2.0000      -9.924758      -270.0664
  23   2.0000      -9.924511      -270.0597
  24   2.0000      -9.924198      -270.0511
  25   2.0000      -9.923180      -270.0235
  26   2.0000      -9.916814      -269.8502
  27   2.0000      -9.916248      -269.8348
  28   2.0000      -9.914014      -269.7740
  29   2.0000      -9.902530      -269.4615
  30   2.0000      -9.901946      -269.4457
  31   2.0000      -7.622392      -207.4158
  32   2.0000      -5.645745      -153.6285
  33   2.0000      -5.638617      -153.4346
  34   2.0000      -5.635355      -153.3458
  35   2.0000      -1.216514       -33.1030
  36   2.0000      -1.114179       -30.3184
  37   2.0000      -1.109099       -30.1801
  38   2.0000      -1.032461       -28.0947
  39   2.0000      -1.028518       -27.9874
  40   2.0000      -0.984241       -26.7826
  41   2.0000      -0.947863       -25.7927
  42   2.0000      -0.940560       -25.5939
  43   2.0000      -0.919351       -25.0168
  44   2.0000      -0.852155       -23.1883
  45   2.0000      -0.800596       -21.7853
  46   2.0000      -0.791857       -21.5475
  47   2.0000      -0.727118       -19.7859
  48   2.0000      -0.716813       -19.5055
  49   2.0000      -0.712323       -19.3833
  50   2.0000      -0.703370       -19.1397
  51   2.0000      -0.688155       -18.7257
  52   2.0000      -0.662091       -18.0164
  53   2.0000      -0.648183       -17.6380
  54   2.0000      -0.641393       -17.4532
  55   2.0000      -0.638119       -17.3641
  56   2.0000      -0.624467       -16.9926
  57   2.0000      -0.594383       -16.1740
  58   2.0000      -0.589786       -16.0489
  59   2.0000      -0.576173       -15.6785
  60   2.0000      -0.563661       -15.3380
  61   2.0000      -0.559384       -15.2216
  62   2.0000      -0.546834       -14.8801
  63   2.0000      -0.546281       -14.8651
  64   2.0000      -0.530162       -14.4264
  65   2.0000      -0.508471       -13.8362
  66   2.0000      -0.500006       -13.6058
  67   2.0000      -0.490337       -13.3428
  68   2.0000      -0.473466       -12.8837
  69   2.0000      -0.466703       -12.6996
  70   2.0000      -0.460569       -12.5327
  71   2.0000      -0.453009       -12.3270
  72   2.0000      -0.449558       -12.2331
  73   2.0000      -0.442887       -12.0516
  74   2.0000      -0.433274       -11.7900
  75   2.0000      -0.431938       -11.7536
  76   2.0000      -0.423228       -11.5166
  77   2.0000      -0.422134       -11.4869
  78   2.0000      -0.417768       -11.3680
  79   2.0000      -0.414070       -11.2674
  80   2.0000      -0.413386       -11.2488
  81   2.0000      -0.410750       -11.1771
  82   2.0000      -0.408366       -11.1122
  83   2.0000      -0.404478       -11.0064
  84   2.0000      -0.401919       -10.9368
  85   2.0000      -0.392803       -10.6887
  86   2.0000      -0.386227       -10.5098
  87   2.0000      -0.383123       -10.4253
  88   2.0000      -0.373966       -10.1761
  89   2.0000      -0.372613       -10.1393
  90   2.0000      -0.365792        -9.9537
  91   2.0000      -0.359065        -9.7707
  92   2.0000      -0.353519        -9.6197
  93   2.0000      -0.351473        -9.5641
  94   2.0000      -0.347480        -9.4554
  95   2.0000      -0.345847        -9.4110
  96   2.0000      -0.345182        -9.3929
  97   2.0000      -0.342216        -9.3122
  98   2.0000      -0.336937        -9.1685
  99   2.0000      -0.334982        -9.1153
 100   2.0000      -0.332253        -9.0411
 101   2.0000      -0.329538        -8.9672
 102   2.0000      -0.325759        -8.8644
 103   2.0000      -0.323826        -8.8117
 104   2.0000      -0.321196        -8.7402
 105   2.0000      -0.313484        -8.5303
 106   2.0000      -0.304810        -8.2943
 107   2.0000      -0.295113        -8.0304
 108   2.0000      -0.276292        -7.5183
 109   2.0000      -0.271913        -7.3991
 110   2.0000      -0.247355        -6.7309
 111   2.0000      -0.245681        -6.6853
 112   2.0000      -0.226865        -6.1733
 113   2.0000      -0.211571        -5.7571
 114   2.0000      -0.209817        -5.7094
 115   2.0000      -0.204862        -5.5746
 116   2.0000      -0.190121        -5.1734
 117   2.0000      -0.180367        -4.9080
 118   0.0000      -0.097327        -2.6484
 119   0.0000      -0.082502        -2.2450
 120   0.0000      -0.047325        -1.2878
 121   0.0000      -0.037586        -1.0228
 122   0.0000      -0.032042        -0.8719

MULLIKEN ATOMIC CHARGES
-----------------------
   0 H :   -0.007488
   1 C :   -0.074804
   2 C :    0.177187
   3 O :   -0.235913
   4 C :    0.254075
   5 O :   -0.221317
   6 C :   -0.071783
   7 C :    0.011746
   8 H :   -0.000058
   9 C :    0.012555
  10 C :   -0.014292
  11 O :   -0.220203
  12 C :    0.072550
  13 H :    0.059989
  14 H :    0.061118
  15 H :    0.023182
  16 C :   -0.030291
  17 H :   -0.016280
  18 C :    0.141209
  19 N :   -0.031344
  20 H :    0.163568
  21 C :    0.031880
  22 S :   -0.408844
  23 N :   -0.104150
  24 H :    0.141876
  25 C :    0.060960
  26 H :    0.050204
  27 H :    0.054377
  28 C :   -0.032763
  29 H :    0.040281
  30 H :    0.038918
  31 H :    0.038887
  32 C :   -0.007866
  33 H :   -0.032268
  34 C :   -0.022096
  35 H :   -0.006712
  36 C :    0.178425
  37 O :   -0.215772
  38 C :    0.474218
  39 F :   -0.162438
  40 F :   -0.135445
  41 F :   -0.160732
  42 C :   -0.059764
  43 H :   -0.005172
  44 C :    0.183536
  45 O :   -0.293800
  46 C :    0.162771
  47 H :    0.044904
  48 H :    0.045027
  49 H :    0.048151
Sum of atomic charges:   -0.0000000

LOEWDIN ATOMIC CHARGES
----------------------
   0 H :    0.043421
   1 C :   -0.085067
   2 C :    0.057009
   3 O :   -0.014474
   4 C :    0.082849
   5 O :   -0.170790
   6 C :   -0.072821
   7 C :    0.009365
   8 H :    0.034224
   9 C :   -0.069583
  10 C :    0.077350
  11 O :   -0.169120
  12 C :   -0.070581
  13 H :    0.053303
  14 H :    0.053928
  15 H :    0.035955
  16 C :    0.012157
  17 H :    0.033243
  18 C :    0.018324
  19 N :    0.055055
  20 H :    0.104205
  21 C :   -0.095317
  22 S :   -0.238204
  23 N :    0.029768
  24 H :    0.087796
  25 C :    0.029018
  26 H :    0.032203
  27 H :    0.031784
  28 C :   -0.050398
  29 H :    0.031579
  30 H :    0.031200
  31 H :    0.038755
  32 C :    0.003273
  33 H :    0.012449
  34 C :   -0.071846
  35 H :    0.042401
  36 C :    0.062531
  37 O :   -0.032932
  38 C :    0.096178
  39 F :   -0.059590
  40 F :   -0.037534
  41 F :   -0.056906
  42 C :   -0.083984
  43 H :    0.035806
  44 C :    0.049335
  45 O :   -0.071982
  46 C :    0.084511
  47 H :    0.024391
  48 H :    0.024412
  49 H :    0.033351

  Mayer bond orders larger than 0.100000
B(  0-H ,  1-C ) :   1.0076 B(  1-C ,  2-C ) :   1.3298 B(  1-C , 44-C ) :   1.2667
B(  2-C ,  3-O ) :   0.9671 B(  2-C , 34-C ) :   1.3325 B(  3-O ,  4-C ) :   1.1469
B(  4-C ,  5-O ) :   2.0499 B(  4-C ,  6-C ) :   0.9368 B(  6-C ,  7-C ) :   1.3175
B(  6-C , 32-C ) :   1.3479 B(  7-C ,  8-H ) :   0.9844 B(  7-C ,  9-C ) :   1.3175
B(  9-C , 10-C ) :   0.9183 B(  9-C , 16-C ) :   1.3482 B( 10-C , 11-O ) :   2.1047
B( 10-C , 12-C ) :   1.1025 B( 12-C , 13-H ) :   0.9254 B( 12-C , 14-H ) :   0.9236
B( 12-C , 15-H ) :   0.9373 B( 16-C , 17-H ) :   0.9892 B( 16-C , 18-C ) :   1.2948
B( 18-C , 19-N ) :   1.1052 B( 18-C , 32-C ) :   1.2979 B( 19-N , 20-H ) :   0.8828
B( 19-N , 21-C ) :   1.2068 B( 21-C , 22-S ) :   1.4369 B( 21-C , 23-N ) :   1.3242
B( 23-N , 24-H ) :   0.9077 B( 23-N , 25-C ) :   0.9682 B( 25-C , 26-H ) :   0.9373
B( 25-C , 27-H ) :   0.9338 B( 25-C , 28-C ) :   1.1207 B( 28-C , 29-H ) :   0.9666
B( 28-C , 30-H ) :   0.9669 B( 28-C , 31-H ) :   0.9591 B( 32-C , 33-H ) :   0.9705
B( 34-C , 35-H ) :   1.0063 B( 34-C , 36-C ) :   1.3180 B( 36-C , 37-O ) :   0.9684
B( 36-C , 42-C ) :   1.3360 B( 37-O , 38-C ) :   1.1942 B( 38-C , 39-F ) :   1.1215
B( 38-C , 40-F ) :   1.1686 B( 38-C , 41-F ) :   1.1247 B( 42-C , 43-H ) :   0.9947
B( 42-C , 44-C ) :   1.2842 B( 44-C , 45-O ) :   1.1776 B( 45-O , 46-C ) :   0.9417
B( 46-C , 47-H ) :   0.9656 B( 46-C , 48-H ) :   0.9654 B( 46-C , 49-H ) :   0.9731

Dispersion correction           -0.152251981
FINAL SINGLE POINT ENERGY     -1955.326979503491

DIPOLE MOMENT
-------------
                                X             Y             Z
Electronic contribution:     38.01981     -35.83415      24.61238
Nuclear contribution   :    -38.69343      38.78458     -26.54859
                        -----------------------------------------
Total Dipole Moment    :     -0.67363       2.95043      -1.93621
                        -----------------------------------------
Magnitude (a.u.)       :      3.59273
Magnitude (Debye)      :      9.13200

Rotational constants in cm-1:     0.006168     0.001661     0.001401
Rotational constants in MHz :   184.921959    49.792731    42.014525

                             ****ORCA TERMINATED NORMALLY****
TOTAL RUN TIME: 0 days 0 hours 36 minutes 58 seconds 971 msec
