                         Program Version 5.0.3 -  RELEASE  -
|  1> ! revPBE def2-SVP def2/J CPCMC(Toluene) Hirshfeld CHELPG RIJONX D3 Energy
|  2> %pal
|  3> nprocs 1
|  4> end
|  5> %maxcore 3000
|  6> %elprop
|  7> Polar 1
|  8> Quadrupole True
|  9> end
| 10> %TDDFT
| 11> NRoots 15
| 12> Triplets True
| 13> end
| 14> * xyzfile 0 1 /home/sk77/PycharmProjects/omg_database_publication/run_calculation/calculation_results/pareto_greedy/0/reaction_10005258/opt_n_1/conformer_4/geometry.xtbopt.xyz
| 15>
| 16> # for cosmo solvent -> Flory Huggins
| 17> $new_job
| 18> ! revPBE def2-SVP def2/J CPCMC Hirshfeld CHELPG RIJONX D3 Energy
| 19> %base "/home/sk77/PycharmProjects/omg_database_publication/run_calculation/calculation_results/pareto_greedy/0/reaction_10005258/opt_n_1/conformer_4/property_cosmo"
| 20> %pal
| 21> nprocs 1
| 22> end
| 23> %maxcore 3000
| 24> * xyzfile 0 1 /home/sk77/PycharmProjects/omg_database_publication/run_calculation/calculation_results/pareto_greedy/0/reaction_10005258/opt_n_1/conformer_4/geometry.xtbopt.xyz
| 25>
| 26>                          ****END OF INPUT****
 Total Charge           Charge          ....    0
 Multiplicity           Mult            ....    1
 Number of Electrons    NEL             ....  236

-----------------------------------------------------------------------------
         ABSORPTION SPECTRUM VIA TRANSITION ELECTRIC DIPOLE MOMENTS
-----------------------------------------------------------------------------
State   Energy    Wavelength  fosc         T2        TX        TY        TZ
        (cm-1)      (nm)                 (au**2)    (au)      (au)      (au)
-----------------------------------------------------------------------------
   1   14585.2    685.6   0.000352014   0.00795   0.04682   0.04105  -0.06379
   2   17454.4    572.9   0.002726974   0.05143   0.05191  -0.17890   0.12936
   3   18775.7    532.6   0.002013024   0.03530   0.14436  -0.09285  -0.07639
   4   22136.9    451.7   0.040838851   0.60734   0.63178  -0.21793  -0.40088
   5   22926.6    436.2   0.001727510   0.02481   0.07940  -0.06351   0.12028
   6   24546.2    407.4   0.000474742   0.00637   0.02414  -0.06425   0.04070
   7   26075.8    383.5   0.048805064   0.61617   0.30896  -0.65422   0.30449
   8   27081.4    369.3   0.001801978   0.02191  -0.00925  -0.03483  -0.14355
   9   27203.9    367.6   0.002408535   0.02915   0.12670  -0.09107  -0.06929
  10   27415.4    364.8   0.028980081   0.34800  -0.45661   0.34628   0.14001
  11   28624.6    349.4   0.000145667   0.00168   0.00983   0.02022  -0.03420
  12   28918.8    345.8   0.000648803   0.00739   0.05143  -0.06554  -0.02110
  13   29943.7    334.0   0.000893269   0.00982   0.02177   0.07253   0.06393
  14   30446.1    328.4   0.043400364   0.46929   0.49629  -0.25542  -0.39717
  15   30613.5    326.7   0.002892510   0.03111  -0.11663   0.10216   0.08406
  16   14523.9    688.5   spin forbidden (mult=3)
  17   16702.3    598.7   spin forbidden (mult=3)
  18   18477.4    541.2   spin forbidden (mult=3)
  19   20505.2    487.7   spin forbidden (mult=3)
  20   22338.1    447.7   spin forbidden (mult=3)
  21   22717.8    440.2   spin forbidden (mult=3)
  22   22899.5    436.7   spin forbidden (mult=3)
  23   26268.8    380.7   spin forbidden (mult=3)
  24   26591.9    376.1   spin forbidden (mult=3)
  25   26636.6    375.4   spin forbidden (mult=3)
  26   26703.2    374.5   spin forbidden (mult=3)
  27   27226.6    367.3   spin forbidden (mult=3)
  28   28090.7    356.0   spin forbidden (mult=3)
  29   28475.3    351.2   spin forbidden (mult=3)
  30   28935.2    345.6   spin forbidden (mult=3)

Dispersion correction           -0.152425921
FINAL SINGLE POINT ENERGY     -1955.245026932963

CARTESIAN COORDINATES (ANGSTROEM)
---------------------------------
  H      2.013599   -2.927428   -2.343545
  C      2.327086   -3.220869   -1.356420
  C      1.870601   -2.540226   -0.245725
  O      1.047865   -1.450022   -0.474194
  C     -0.051046   -1.229704    0.266554
  O     -0.433346   -1.964352    1.149933
  C     -0.755529    0.009772   -0.144814
  C     -0.341242    0.759312   -1.243174
  H      0.521204    0.439601   -1.800287
  C     -1.064616    1.891708   -1.602561
  C     -0.709727    2.738242   -2.779992
  O     -1.378579    3.714699   -3.066319
  C      0.496066    2.341347   -3.577978
  H      1.375864    2.335454   -2.939968
  H      0.356741    1.342766   -3.982807
  H      0.638526    3.046931   -4.391745
  C     -2.179121    2.274784   -0.854564
  H     -2.742345    3.122140   -1.213713
  C     -2.573465    1.556532    0.272366
  N     -3.673676    1.876728    1.059074
  H     -4.059727    1.104234    1.587843
  C     -4.302427    3.057871    1.314889
  S     -5.727010    2.973449    2.199337
  N     -3.766935    4.197959    0.890365
  H     -2.839458    4.173602    0.488727
  C     -4.305933    5.519438    1.117715
  H     -4.550962    5.967343    0.150018
  H     -5.224848    5.408797    1.695729
  C     -3.301119    6.395934    1.856952
  H     -3.061837    5.962718    2.824618
  H     -2.387188    6.494940    1.277149
  H     -3.725234    7.382533    2.012556
  C     -1.858690    0.403417    0.603177
  H     -2.155003   -0.201873    1.446537
  C      2.268430   -2.896330    1.041652
  H      1.898136   -2.343220    1.887741
  C      3.127691   -3.969391    1.168172
  O      3.611455   -4.437206    2.411924
  C      3.203253   -3.900715    3.534966
  F      1.878047   -3.984578    3.755652
  F      3.791192   -4.528645    4.553893
  F      3.504975   -2.594047    3.679847
  C      3.600963   -4.677449    0.075200
  H      4.267217   -5.501910    0.255358
  C      3.201933   -4.301756   -1.205605
  O      3.594860   -4.908326   -2.338688
  C      4.477152   -6.017934   -2.253089
  H      5.423868   -5.730820   -1.791703
  H      4.023460   -6.836289   -1.690769
  H      4.648869   -6.329182   -3.280265

 Multiplicity           Mult            ....    1
 Number of Electrons    NEL             ....  236
 Basis Dimension        Dim             ....  533

ORBITAL ENERGIES
----------------

  NO   OCC          E(Eh)            E(eV)
   0   2.0000     -87.987827     -2394.2705
   1   2.0000     -24.309468      -661.4943
   2   2.0000     -24.308213      -661.4601
   3   2.0000     -24.307202      -661.4326
   4   2.0000     -18.850489      -512.9479
   5   2.0000     -18.841377      -512.6999
   6   2.0000     -18.812457      -511.9130
   7   2.0000     -18.771103      -510.7877
   8   2.0000     -18.764715      -510.6138
   9   2.0000     -14.056104      -382.4860
  10   2.0000     -14.047891      -382.2625
  11   2.0000     -10.191649      -277.3289
  12   2.0000     -10.043878      -273.3078
  13   2.0000     -10.014799      -272.5165
  14   2.0000      -9.994889      -271.9748
  15   2.0000      -9.994565      -271.9659
  16   2.0000      -9.987007      -271.7603
  17   2.0000      -9.981861      -271.6202
  18   2.0000      -9.971952      -271.3506
  19   2.0000      -9.955106      -270.8922
  20   2.0000      -9.937977      -270.4261
  21   2.0000      -9.937088      -270.4019
  22   2.0000      -9.930559      -270.2242
  23   2.0000      -9.928761      -270.1753
  24   2.0000      -9.927996      -270.1545
  25   2.0000      -9.927013      -270.1277
  26   2.0000      -9.919200      -269.9152
  27   2.0000      -9.916387      -269.8386
  28   2.0000      -9.913620      -269.7633
  29   2.0000      -9.902893      -269.4714
  30   2.0000      -9.897345      -269.3204
  31   2.0000      -7.621773      -207.3990
  32   2.0000      -5.645073      -153.6102
  33   2.0000      -5.638069      -153.4196
  34   2.0000      -5.634730      -153.3288
  35   2.0000      -1.216734       -33.1090
  36   2.0000      -1.114379       -30.3238
  37   2.0000      -1.109604       -30.1939
  38   2.0000      -1.035245       -28.1705
  39   2.0000      -1.028528       -27.9877
  40   2.0000      -0.984886       -26.8001
  41   2.0000      -0.950248       -25.8576
  42   2.0000      -0.942692       -25.6519
  43   2.0000      -0.917589       -24.9689
  44   2.0000      -0.852992       -23.2111
  45   2.0000      -0.802381       -21.8339
  46   2.0000      -0.795822       -21.6554
  47   2.0000      -0.729889       -19.8613
  48   2.0000      -0.720335       -19.6013
  49   2.0000      -0.713425       -19.4133
  50   2.0000      -0.696567       -18.9546
  51   2.0000      -0.685489       -18.6531
  52   2.0000      -0.666157       -18.1271
  53   2.0000      -0.652577       -17.7575
  54   2.0000      -0.645147       -17.5553
  55   2.0000      -0.641824       -17.4649
  56   2.0000      -0.616580       -16.7780
  57   2.0000      -0.593533       -16.1508
  58   2.0000      -0.590573       -16.0703
  59   2.0000      -0.581529       -15.8242
  60   2.0000      -0.567453       -15.4412
  61   2.0000      -0.551345       -15.0029
  62   2.0000      -0.546679       -14.8759
  63   2.0000      -0.538059       -14.6413
  64   2.0000      -0.529602       -14.4112
  65   2.0000      -0.521722       -14.1968
  66   2.0000      -0.510088       -13.8802
  67   2.0000      -0.496367       -13.5068
  68   2.0000      -0.467477       -12.7207
  69   2.0000      -0.466260       -12.6876
  70   2.0000      -0.463280       -12.6065
  71   2.0000      -0.455566       -12.3966
  72   2.0000      -0.452899       -12.3240
  73   2.0000      -0.446242       -12.1429
  74   2.0000      -0.435906       -11.8616
  75   2.0000      -0.425507       -11.5786
  76   2.0000      -0.423084       -11.5127
  77   2.0000      -0.421663       -11.4740
  78   2.0000      -0.420118       -11.4320
  79   2.0000      -0.413894       -11.2626
  80   2.0000      -0.412405       -11.2221
  81   2.0000      -0.410765       -11.1775
  82   2.0000      -0.406036       -11.0488
  83   2.0000      -0.403584       -10.9821
  84   2.0000      -0.403090       -10.9686
  85   2.0000      -0.392981       -10.6936
  86   2.0000      -0.384218       -10.4551
  87   2.0000      -0.381263       -10.3747
  88   2.0000      -0.373844       -10.1728
  89   2.0000      -0.372197       -10.1280
  90   2.0000      -0.368236       -10.0202
  91   2.0000      -0.361684        -9.8419
  92   2.0000      -0.359588        -9.7849
  93   2.0000      -0.356010        -9.6875
  94   2.0000      -0.349484        -9.5099
  95   2.0000      -0.346637        -9.4325
  96   2.0000      -0.345580        -9.4037
  97   2.0000      -0.342549        -9.3212
  98   2.0000      -0.338883        -9.2215
  99   2.0000      -0.336280        -9.1506
 100   2.0000      -0.333347        -9.0708
 101   2.0000      -0.331493        -9.0204
 102   2.0000      -0.326089        -8.8733
 103   2.0000      -0.321947        -8.7606
 104   2.0000      -0.317907        -8.6507
 105   2.0000      -0.309401        -8.4192
 106   2.0000      -0.304008        -8.2725
 107   2.0000      -0.295312        -8.0358
 108   2.0000      -0.275593        -7.4993
 109   2.0000      -0.273901        -7.4532
 110   2.0000      -0.250909        -6.8276
 111   2.0000      -0.247227        -6.7274
 112   2.0000      -0.226431        -6.1615
 113   2.0000      -0.213201        -5.8015
 114   2.0000      -0.211961        -5.7678
 115   2.0000      -0.206304        -5.6138
 116   2.0000      -0.190344        -5.1795
 117   2.0000      -0.181155        -4.9295
 118   0.0000      -0.102085        -2.7779
 119   0.0000      -0.084291        -2.2937
 120   0.0000      -0.047858        -1.3023
 121   0.0000      -0.039906        -1.0859
 122   0.0000      -0.031363        -0.8534

MULLIKEN ATOMIC CHARGES
-----------------------
   0 H :   -0.015585
   1 C :   -0.017967
   2 C :    0.173708
   3 O :   -0.234247
   4 C :    0.254535
   5 O :   -0.220733
   6 C :   -0.063232
   7 C :    0.014414
   8 H :    0.002761
   9 C :    0.008981
  10 C :   -0.012553
  11 O :   -0.216605
  12 C :    0.072996
  13 H :    0.061677
  14 H :    0.061719
  15 H :    0.024581
  16 C :   -0.069357
  17 H :   -0.009236
  18 C :    0.135705
  19 N :   -0.005014
  20 H :    0.146593
  21 C :    0.017322
  22 S :   -0.418654
  23 N :   -0.114884
  24 H :    0.161322
  25 C :    0.118349
  26 H :    0.034319
  27 H :    0.018463
  28 C :   -0.036964
  29 H :    0.028315
  30 H :    0.035130
  31 H :    0.032563
  32 C :    0.002183
  33 H :   -0.007687
  34 C :   -0.052467
  35 H :    0.001842
  36 C :    0.172407
  37 O :   -0.214411
  38 C :    0.474586
  39 F :   -0.159733
  40 F :   -0.135235
  41 F :   -0.162901
  42 C :   -0.085200
  43 H :   -0.002579
  44 C :    0.194015
  45 O :   -0.293775
  46 C :    0.162179
  47 H :    0.045042
  48 H :    0.044746
  49 H :    0.048567
Sum of atomic charges:    0.0000000

LOEWDIN ATOMIC CHARGES
----------------------
   0 H :    0.041971
   1 C :   -0.061376
   2 C :    0.054699
   3 O :   -0.011645
   4 C :    0.083129
   5 O :   -0.168737
   6 C :   -0.065763
   7 C :    0.009904
   8 H :    0.036146
   9 C :   -0.061226
  10 C :    0.078703
  11 O :   -0.164601
  12 C :   -0.069937
  13 H :    0.054178
  14 H :    0.054383
  15 H :    0.036835
  16 C :   -0.005086
  17 H :    0.029713
  18 C :    0.013129
  19 N :    0.044448
  20 H :    0.096737
  21 C :   -0.093105
  22 S :   -0.252611
  23 N :    0.043595
  24 H :    0.090917
  25 C :    0.034539
  26 H :    0.029304
  27 H :    0.010264
  28 C :   -0.057469
  29 H :    0.027212
  30 H :    0.027966
  31 H :    0.034023
  32 C :    0.016466
  33 H :    0.039764
  34 C :   -0.090926
  35 H :    0.034131
  36 C :    0.065788
  37 O :   -0.032874
  38 C :    0.095915
  39 F :   -0.056400
  40 F :   -0.037355
  41 F :   -0.059477
  42 C :   -0.084056
  43 H :    0.044973
  44 C :    0.047883
  45 O :   -0.070771
  46 C :    0.084199
  47 H :    0.024512
  48 H :    0.024491
  49 H :    0.033499

  Mayer bond orders larger than 0.100000
B(  0-H ,  1-C ) :   1.0125 B(  1-C ,  2-C ) :   1.3922 B(  1-C , 44-C ) :   1.2776
B(  2-C ,  3-O ) :   0.9532 B(  2-C , 34-C ) :   1.2860 B(  3-O ,  4-C ) :   1.1573
B(  4-C ,  5-O ) :   2.0508 B(  4-C ,  6-C ) :   0.9309 B(  6-C ,  7-C ) :   1.3063
B(  6-C , 32-C ) :   1.3692 B(  7-C ,  8-H ) :   0.9857 B(  7-C ,  9-C ) :   1.3321
B(  9-C , 10-C ) :   0.9144 B(  9-C , 16-C ) :   1.3459 B( 10-C , 11-O ) :   2.1049
B( 10-C , 12-C ) :   1.1043 B( 12-C , 13-H ) :   0.9247 B( 12-C , 14-H ) :   0.9234
B( 12-C , 15-H ) :   0.9369 B( 16-C , 17-H ) :   0.9832 B( 16-C , 18-C ) :   1.2842
B( 18-C , 19-N ) :   1.0985 B( 18-C , 32-C ) :   1.2886 B( 19-N , 20-H ) :   0.8865
B( 19-N , 21-C ) :   1.1899 B( 21-C , 22-S ) :   1.4309 B( 21-C , 23-N ) :   1.3477
B( 22-S , 27-H ) :   0.1017 B( 23-N , 24-H ) :   0.8993 B( 23-N , 25-C ) :   0.9732
B( 25-C , 26-H ) :   0.9376 B( 25-C , 27-H ) :   0.9135 B( 25-C , 28-C ) :   1.1179
B( 28-C , 29-H ) :   0.9676 B( 28-C , 30-H ) :   0.9683 B( 28-C , 31-H ) :   0.9605
B( 32-C , 33-H ) :   0.9936 B( 34-C , 35-H ) :   0.9847 B( 34-C , 36-C ) :   1.3162
B( 36-C , 37-O ) :   0.9718 B( 36-C , 42-C ) :   1.3381 B( 37-O , 38-C ) :   1.1940
B( 38-C , 39-F ) :   1.1263 B( 38-C , 40-F ) :   1.1687 B( 38-C , 41-F ) :   1.1170
B( 42-C , 43-H ) :   1.0065 B( 42-C , 44-C ) :   1.2660 B( 44-C , 45-O ) :   1.1705
B( 45-O , 46-C ) :   0.9422 B( 46-C , 47-H ) :   0.9653 B( 46-C , 48-H ) :   0.9654
B( 46-C , 49-H ) :   0.9731

Dispersion correction           -0.152425921
FINAL SINGLE POINT ENERGY     -1955.327407071657

DIPOLE MOMENT
-------------
                                X             Y             Z
Electronic contribution:     17.58213     -34.16653      25.65644
Nuclear contribution   :    -14.22589      33.51355     -28.02224
                        -----------------------------------------
Total Dipole Moment    :      3.35624      -0.65298      -2.36580
                        -----------------------------------------
Magnitude (a.u.)       :      4.15785
Magnitude (Debye)      :     10.56842

Rotational constants in cm-1:     0.006508     0.001696     0.001444
Rotational constants in MHz :   195.097284    50.842786    43.290445

                             ****ORCA TERMINATED NORMALLY****
TOTAL RUN TIME: 0 days 0 hours 36 minutes 48 seconds 451 msec
