                         Program Version 5.0.3 -  RELEASE  -
|  1> ! revPBE def2-SVP def2/J CPCMC(Toluene) Hirshfeld CHELPG RIJONX D3 Energy
|  2> %pal
|  3> nprocs 1
|  4> end
|  5> %maxcore 3000
|  6> %elprop
|  7> Polar 1
|  8> Quadrupole True
|  9> end
| 10> %TDDFT
| 11> NRoots 15
| 12> Triplets True
| 13> end
| 14> * xyzfile 0 1 /home/sk77/PycharmProjects/omg_database_publication/run_calculation/calculation_results/pareto_greedy/0/reaction_10005258/opt_n_1/conformer_8/geometry.xtbopt.xyz
| 15>
| 16> # for cosmo solvent -> Flory Huggins
| 17> $new_job
| 18> ! revPBE def2-SVP def2/J CPCMC Hirshfeld CHELPG RIJONX D3 Energy
| 19> %base "/home/sk77/PycharmProjects/omg_database_publication/run_calculation/calculation_results/pareto_greedy/0/reaction_10005258/opt_n_1/conformer_8/property_cosmo"
| 20> %pal
| 21> nprocs 1
| 22> end
| 23> %maxcore 3000
| 24> * xyzfile 0 1 /home/sk77/PycharmProjects/omg_database_publication/run_calculation/calculation_results/pareto_greedy/0/reaction_10005258/opt_n_1/conformer_8/geometry.xtbopt.xyz
| 25>
| 26>                          ****END OF INPUT****
 Total Charge           Charge          ....    0
 Multiplicity           Mult            ....    1
 Number of Electrons    NEL             ....  236

-----------------------------------------------------------------------------
         ABSORPTION SPECTRUM VIA TRANSITION ELECTRIC DIPOLE MOMENTS
-----------------------------------------------------------------------------
State   Energy    Wavelength  fosc         T2        TX        TY        TZ
        (cm-1)      (nm)                 (au**2)    (au)      (au)      (au)
-----------------------------------------------------------------------------
   1   15761.5    634.5   0.001013221   0.02116   0.11734  -0.08599  -0.00107
   2   18890.4    529.4   0.004289742   0.07476   0.10365  -0.25112   0.03090
   3   19789.4    505.3   0.004059296   0.06753   0.23747   0.00082  -0.10554
   4   22721.4    440.1   0.003367806   0.04880  -0.11227   0.17616  -0.07183
   5   23364.4    428.0   0.038221558   0.53855   0.70141  -0.08172  -0.19975
   6   24157.5    413.9   0.000362454   0.00494   0.00027  -0.06396   0.02913
   7   26654.0    375.2   0.030700255   0.37919  -0.00885   0.59180  -0.16996
   8   26760.5    373.7   0.001968779   0.02422   0.11338  -0.05989   0.08819
   9   26946.9    371.1   0.032765030   0.40029   0.17279  -0.59300   0.13706
  10   27837.6    359.2   0.000802034   0.00948   0.06852  -0.03142  -0.06167
  11   28259.8    353.9   0.003497093   0.04074   0.17537   0.01836  -0.09821
  12   30062.9    332.6   0.001457449   0.01596  -0.10482   0.02036   0.06752
  13   30594.4    326.9   0.034764451   0.37408  -0.47459   0.24681   0.29654
  14   31121.0    321.3   0.012704740   0.13440   0.01526   0.34267  -0.12938
  15   31146.1    321.1   0.043069836   0.45525  -0.00613  -0.65362   0.16732
  16   15639.3    639.4   spin forbidden (mult=3)
  17   18050.0    554.0   spin forbidden (mult=3)
  18   19375.8    516.1   spin forbidden (mult=3)
  19   21574.2    463.5   spin forbidden (mult=3)
  20   21856.9    457.5   spin forbidden (mult=3)
  21   22488.3    444.7   spin forbidden (mult=3)
  22   23391.7    427.5   spin forbidden (mult=3)
  23   26159.5    382.3   spin forbidden (mult=3)
  24   26282.7    380.5   spin forbidden (mult=3)
  25   26410.1    378.6   spin forbidden (mult=3)
  26   26891.4    371.9   spin forbidden (mult=3)
  27   27184.6    367.9   spin forbidden (mult=3)
  28   28885.1    346.2   spin forbidden (mult=3)
  29   29632.5    337.5   spin forbidden (mult=3)
  30   29820.9    335.3   spin forbidden (mult=3)

Dispersion correction           -0.153063727
FINAL SINGLE POINT ENERGY     -1955.238876001548

CARTESIAN COORDINATES (ANGSTROEM)
---------------------------------
  H     -0.824856   -3.065974   -0.813027
  C      0.133361   -3.356339   -0.418457
  C      1.044909   -2.360634   -0.103089
  O      0.613919   -1.056312   -0.289710
  C      1.397997   -0.137568   -0.881333
  O      2.515382   -0.363145   -1.287910
  C      0.715024    1.172177   -1.012652
  C      1.411843    2.209690   -1.620112
  H      2.426933    2.052752   -1.950869
  C      0.799195    3.443976   -1.828678
  C      1.582033    4.508170   -2.523067
  O      2.714824    4.292200   -2.913956
  C      0.915566    5.838859   -2.719770
  H      0.020039    5.715767   -3.323284
  H      0.633943    6.258888   -1.758072
  H      1.601519    6.513101   -3.224745
  C     -0.510123    3.627889   -1.399662
  H     -1.011948    4.568326   -1.556585
  C     -1.209986    2.600400   -0.759866
  N     -2.527959    2.860239   -0.394994
  H     -2.994743    3.575531   -0.937745
  C     -3.319156    2.326060    0.575078
  S     -4.953628    2.697761    0.511563
  N     -2.769594    1.560525    1.517935
  H     -1.760169    1.556443    1.584701
  C     -3.468374    1.067793    2.683455
  H     -4.534031    1.051051    2.449467
  H     -3.127635    0.049089    2.876706
  C     -3.209936    1.947899    3.904086
  H     -2.147493    1.982031    4.131050
  H     -3.563656    2.958939    3.715930
  H     -3.740345    1.548433    4.762361
  C     -0.597404    1.360547   -0.582802
  H     -1.134191    0.527705   -0.161082
  C      2.300284   -2.647909    0.416297
  H      2.980461   -1.847197    0.651571
  C      2.628718   -3.982893    0.588600
  O      3.873202   -4.417249    1.099195
  C      4.854974   -3.570962    1.286726
  F      5.229780   -2.883342    0.192192
  F      4.623017   -2.633796    2.230048
  F      5.932839   -4.240648    1.696139
  C      1.746560   -4.998490    0.282111
  H      2.031636   -6.025040    0.429706
  C      0.478985   -4.691906   -0.222088
  O     -0.321257   -5.738457   -0.489212
  C     -1.621768   -5.492543   -1.005349
  H     -2.215356   -4.902052   -0.305078
  H     -1.570979   -4.986093   -1.971019
  H     -2.072350   -6.473670   -1.130694

 Multiplicity           Mult            ....    1
 Number of Electrons    NEL             ....  236
 Basis Dimension        Dim             ....  533

ORBITAL ENERGIES
----------------

  NO   OCC          E(Eh)            E(eV)
   0   2.0000     -87.989164     -2394.3069
   1   2.0000     -24.309426      -661.4931
   2   2.0000     -24.308343      -661.4637
   3   2.0000     -24.306679      -661.4184
   4   2.0000     -18.850364      -512.9445
   5   2.0000     -18.840844      -512.6854
   6   2.0000     -18.812361      -511.9104
   7   2.0000     -18.770800      -510.7794
   8   2.0000     -18.764766      -510.6153
   9   2.0000     -14.055441      -382.4680
  10   2.0000     -14.047161      -382.2427
  11   2.0000     -10.191614      -277.3279
  12   2.0000     -10.043439      -273.2959
  13   2.0000     -10.014334      -272.5039
  14   2.0000      -9.995397      -271.9886
  15   2.0000      -9.994348      -271.9600
  16   2.0000      -9.987193      -271.7653
  17   2.0000      -9.981887      -271.6209
  18   2.0000      -9.971632      -271.3419
  19   2.0000      -9.955086      -270.8917
  20   2.0000      -9.938054      -270.4282
  21   2.0000      -9.937134      -270.4032
  22   2.0000      -9.931533      -270.2508
  23   2.0000      -9.930542      -270.2238
  24   2.0000      -9.928766      -270.1754
  25   2.0000      -9.923856      -270.0418
  26   2.0000      -9.919523      -269.9240
  27   2.0000      -9.915103      -269.8037
  28   2.0000      -9.915058      -269.8024
  29   2.0000      -9.903002      -269.4744
  30   2.0000      -9.896009      -269.2841
  31   2.0000      -7.623055      -207.4339
  32   2.0000      -5.646301      -153.6437
  33   2.0000      -5.639471      -153.4578
  34   2.0000      -5.635958      -153.3622
  35   2.0000      -1.216557       -33.1042
  36   2.0000      -1.114388       -30.3240
  37   2.0000      -1.109139       -30.1812
  38   2.0000      -1.034492       -28.1500
  39   2.0000      -1.028527       -27.9876
  40   2.0000      -0.984685       -26.7946
  41   2.0000      -0.950023       -25.8514
  42   2.0000      -0.942314       -25.6417
  43   2.0000      -0.917664       -24.9709
  44   2.0000      -0.852348       -23.1936
  45   2.0000      -0.802126       -21.8270
  46   2.0000      -0.795650       -21.6507
  47   2.0000      -0.731923       -19.9166
  48   2.0000      -0.716125       -19.4868
  49   2.0000      -0.712635       -19.3918
  50   2.0000      -0.701244       -19.0818
  51   2.0000      -0.680100       -18.5065
  52   2.0000      -0.666857       -18.1461
  53   2.0000      -0.650339       -17.6966
  54   2.0000      -0.649546       -17.6751
  55   2.0000      -0.638608       -17.3774
  56   2.0000      -0.618904       -16.8412
  57   2.0000      -0.598507       -16.2862
  58   2.0000      -0.588371       -16.0104
  59   2.0000      -0.577424       -15.7125
  60   2.0000      -0.566426       -15.4132
  61   2.0000      -0.550149       -14.9703
  62   2.0000      -0.546490       -14.8708
  63   2.0000      -0.539974       -14.6934
  64   2.0000      -0.526195       -14.3185
  65   2.0000      -0.520259       -14.1570
  66   2.0000      -0.511464       -13.9176
  67   2.0000      -0.498609       -13.5678
  68   2.0000      -0.471445       -12.8287
  69   2.0000      -0.467674       -12.7260
  70   2.0000      -0.463046       -12.6001
  71   2.0000      -0.450927       -12.2703
  72   2.0000      -0.450138       -12.2489
  73   2.0000      -0.442223       -12.0335
  74   2.0000      -0.438816       -11.9408
  75   2.0000      -0.426767       -11.6129
  76   2.0000      -0.423446       -11.5225
  77   2.0000      -0.422356       -11.4929
  78   2.0000      -0.420744       -11.4490
  79   2.0000      -0.414266       -11.2727
  80   2.0000      -0.412043       -11.2123
  81   2.0000      -0.409199       -11.1349
  82   2.0000      -0.403893       -10.9905
  83   2.0000      -0.403377       -10.9765
  84   2.0000      -0.401431       -10.9235
  85   2.0000      -0.393005       -10.6942
  86   2.0000      -0.385035       -10.4773
  87   2.0000      -0.382421       -10.4062
  88   2.0000      -0.374132       -10.1806
  89   2.0000      -0.371446       -10.1076
  90   2.0000      -0.368235       -10.0202
  91   2.0000      -0.362027        -9.8513
  92   2.0000      -0.361806        -9.8452
  93   2.0000      -0.355923        -9.6852
  94   2.0000      -0.350318        -9.5326
  95   2.0000      -0.346071        -9.4171
  96   2.0000      -0.345475        -9.4009
  97   2.0000      -0.339551        -9.2396
  98   2.0000      -0.338305        -9.2057
  99   2.0000      -0.336752        -9.1635
 100   2.0000      -0.333162        -9.0658
 101   2.0000      -0.331193        -9.0122
 102   2.0000      -0.326020        -8.8715
 103   2.0000      -0.321770        -8.7558
 104   2.0000      -0.318901        -8.6777
 105   2.0000      -0.306665        -8.3448
 106   2.0000      -0.304760        -8.2929
 107   2.0000      -0.294941        -8.0257
 108   2.0000      -0.274806        -7.4779
 109   2.0000      -0.271532        -7.3888
 110   2.0000      -0.254239        -6.9182
 111   2.0000      -0.247247        -6.7279
 112   2.0000      -0.226233        -6.1561
 113   2.0000      -0.213721        -5.8156
 114   2.0000      -0.210608        -5.7309
 115   2.0000      -0.206427        -5.6172
 116   2.0000      -0.192152        -5.2287
 117   2.0000      -0.181713        -4.9447
 118   0.0000      -0.101462        -2.7609
 119   0.0000      -0.085798        -2.3347
 120   0.0000      -0.048192        -1.3114
 121   0.0000      -0.039750        -1.0817
 122   0.0000      -0.033204        -0.9035

MULLIKEN ATOMIC CHARGES
-----------------------
   0 H :   -0.006343
   1 C :   -0.071297
   2 C :    0.164743
   3 O :   -0.236685
   4 C :    0.255451
   5 O :   -0.218718
   6 C :   -0.063072
   7 C :   -0.011147
   8 H :   -0.022992
   9 C :    0.014492
  10 C :   -0.009769
  11 O :   -0.214702
  12 C :    0.066527
  13 H :    0.063227
  14 H :    0.061982
  15 H :    0.024599
  16 C :   -0.008400
  17 H :    0.004507
  18 C :    0.116797
  19 N :   -0.012138
  20 H :    0.149216
  21 C :    0.022432
  22 S :   -0.413657
  23 N :   -0.118389
  24 H :    0.162957
  25 C :    0.105233
  26 H :    0.019600
  27 H :    0.033201
  28 C :   -0.022835
  29 H :    0.031449
  30 H :    0.021537
  31 H :    0.030992
  32 C :   -0.014010
  33 H :    0.006666
  34 C :   -0.048903
  35 H :    0.000697
  36 C :    0.176411
  37 O :   -0.216265
  38 C :    0.473738
  39 F :   -0.159693
  40 F :   -0.163505
  41 F :   -0.135107
  42 C :   -0.028226
  43 H :   -0.011651
  44 C :    0.195030
  45 O :   -0.294727
  46 C :    0.162141
  47 H :    0.045083
  48 H :    0.045207
  49 H :    0.048315
Sum of atomic charges:    0.0000000

LOEWDIN ATOMIC CHARGES
----------------------
   0 H :    0.044010
   1 C :   -0.082370
   2 C :    0.057801
   3 O :   -0.014279
   4 C :    0.083031
   5 O :   -0.167632
   6 C :   -0.065615
   7 C :    0.027182
   8 H :    0.027321
   9 C :   -0.063440
  10 C :    0.079142
  11 O :   -0.163649
  12 C :   -0.070917
  13 H :    0.054628
  14 H :    0.053707
  15 H :    0.036878
  16 C :    0.009044
  17 H :    0.043509
  18 C :    0.013474
  19 N :    0.044771
  20 H :    0.097266
  21 C :   -0.094280
  22 S :   -0.248745
  23 N :    0.040892
  24 H :    0.092947
  25 C :    0.032556
  26 H :    0.012837
  27 H :    0.030069
  28 C :   -0.059038
  29 H :    0.026852
  30 H :    0.024219
  31 H :    0.032620
  32 C :   -0.009616
  33 H :    0.035787
  34 C :   -0.089894
  35 H :    0.034315
  36 C :    0.062532
  37 O :   -0.033025
  38 C :    0.095888
  39 F :   -0.056142
  40 F :   -0.060958
  41 F :   -0.037327
  42 C :   -0.062506
  43 H :    0.043247
  44 C :    0.047732
  45 O :   -0.071468
  46 C :    0.084209
  47 H :    0.024436
  48 H :    0.024551
  49 H :    0.033448

  Mayer bond orders larger than 0.100000
B(  0-H ,  1-C ) :   1.0055 B(  1-C ,  2-C ) :   1.3559 B(  1-C , 44-C ) :   1.2479
B(  2-C ,  3-O ) :   0.9565 B(  2-C , 34-C ) :   1.3238 B(  3-O ,  4-C ) :   1.1543
B(  4-C ,  5-O ) :   2.0547 B(  4-C ,  6-C ) :   0.9352 B(  6-C ,  7-C ) :   1.3471
B(  6-C , 32-C ) :   1.3170 B(  7-C ,  8-H ) :   0.9941 B(  7-C ,  9-C ) :   1.3102
B(  9-C , 10-C ) :   0.9135 B(  9-C , 16-C ) :   1.3503 B( 10-C , 11-O ) :   2.1157
B( 10-C , 12-C ) :   1.1023 B( 12-C , 13-H ) :   0.9231 B( 12-C , 14-H ) :   0.9262
B( 12-C , 15-H ) :   0.9372 B( 16-C , 17-H ) :   0.9856 B( 16-C , 18-C ) :   1.3023
B( 18-C , 19-N ) :   1.0875 B( 18-C , 32-C ) :   1.3018 B( 19-N , 20-H ) :   0.8883
B( 19-N , 21-C ) :   1.1968 B( 21-C , 22-S ) :   1.4316 B( 21-C , 23-N ) :   1.3331
B( 23-N , 24-H ) :   0.8998 B( 23-N , 25-C ) :   0.9868 B( 25-C , 26-H ) :   0.9151
B( 25-C , 27-H ) :   0.9399 B( 25-C , 28-C ) :   1.1162 B( 28-C , 29-H ) :   0.9687
B( 28-C , 30-H ) :   0.9635 B( 28-C , 31-H ) :   0.9607 B( 32-C , 33-H ) :   0.9882
B( 34-C , 35-H ) :   0.9851 B( 34-C , 36-C ) :   1.2798 B( 36-C , 37-O ) :   0.9631
B( 36-C , 42-C ) :   1.3769 B( 37-O , 38-C ) :   1.1961 B( 38-C , 39-F ) :   1.1273
B( 38-C , 40-F ) :   1.1149 B( 38-C , 41-F ) :   1.1687 B( 42-C , 43-H ) :   1.0122
B( 42-C , 44-C ) :   1.2962 B( 44-C , 45-O ) :   1.1686 B( 45-O , 46-C ) :   0.9424
B( 46-C , 47-H ) :   0.9653 B( 46-C , 48-H ) :   0.9654 B( 46-C , 49-H ) :   0.9730

Dispersion correction           -0.153063727
FINAL SINGLE POINT ENERGY     -1955.328063388789

DIPOLE MOMENT
-------------
                                X             Y             Z
Electronic contribution:     41.08530     -24.40388       0.77478
Nuclear contribution   :    -42.97685      24.41471      -0.21745
                        -----------------------------------------
Total Dipole Moment    :     -1.89156       0.01083       0.55733
                        -----------------------------------------
Magnitude (a.u.)       :      1.97198
Magnitude (Debye)      :      5.01238

Rotational constants in cm-1:     0.004836     0.002196     0.001757
Rotational constants in MHz :   144.975063    65.840106    52.684192

                             ****ORCA TERMINATED NORMALLY****
TOTAL RUN TIME: 0 days 0 hours 36 minutes 52 seconds 469 msec
