                         Program Version 5.0.3 -  RELEASE  -
|  1> ! revPBE def2-SVP def2/J CPCMC(Toluene) Hirshfeld CHELPG RIJONX D3 Energy
|  2> %pal
|  3> nprocs 1
|  4> end
|  5> %maxcore 3000
|  6> %elprop
|  7> Polar 1
|  8> Quadrupole True
|  9> end
| 10> %TDDFT
| 11> NRoots 15
| 12> Triplets True
| 13> end
| 14> * xyzfile 0 1 /home/sk77/PycharmProjects/omg_database_publication/run_calculation/calculation_results/pareto_greedy/0/reaction_10005258/opt_n_1/conformer_10/geometry.xtbopt.xyz
| 15>
| 16> # for cosmo solvent -> Flory Huggins
| 17> $new_job
| 18> ! revPBE def2-SVP def2/J CPCMC Hirshfeld CHELPG RIJONX D3 Energy
| 19> %base "/home/sk77/PycharmProjects/omg_database_publication/run_calculation/calculation_results/pareto_greedy/0/reaction_10005258/opt_n_1/conformer_10/property_cosmo"
| 20> %pal
| 21> nprocs 1
| 22> end
| 23> %maxcore 3000
| 24> * xyzfile 0 1 /home/sk77/PycharmProjects/omg_database_publication/run_calculation/calculation_results/pareto_greedy/0/reaction_10005258/opt_n_1/conformer_10/geometry.xtbopt.xyz
| 25>
| 26>                          ****END OF INPUT****
 Total Charge           Charge          ....    0
 Multiplicity           Mult            ....    1
 Number of Electrons    NEL             ....  236

-----------------------------------------------------------------------------
         ABSORPTION SPECTRUM VIA TRANSITION ELECTRIC DIPOLE MOMENTS
-----------------------------------------------------------------------------
State   Energy    Wavelength  fosc         T2        TX        TY        TZ
        (cm-1)      (nm)                 (au**2)    (au)      (au)      (au)
-----------------------------------------------------------------------------
   1   14788.3    676.2   0.000631948   0.01407  -0.04349   0.09817   0.05039
   2   17722.6    564.3   0.003990935   0.07413  -0.00283   0.25948   0.08243
   3   18883.2    529.6   0.002639667   0.04602  -0.13925   0.02896   0.16059
   4   22253.5    449.4   0.037753064   0.55851   0.49630  -0.24180  -0.50371
   5   23203.2    431.0   0.001944008   0.02758  -0.10144  -0.11364  -0.06616
   6   24273.6    412.0   0.000102393   0.00139  -0.02024  -0.03128   0.00101
   7   26182.7    381.9   0.048834030   0.61402  -0.07804  -0.76051  -0.17193
   8   27214.0    367.5   0.001627742   0.01969  -0.08074   0.00893   0.11442
   9   27241.5    367.1   0.001992638   0.02408   0.15143   0.03203   0.01117
  10   27674.6    361.3   0.031166200   0.37075   0.23231  -0.43602  -0.35590
  11   28382.6    352.3   0.000213904   0.00248   0.02428   0.04345   0.00203
  12   28861.3    346.5   0.000824413   0.00940  -0.05551  -0.00360   0.07943
  13   29962.0    333.8   0.007515913   0.08258  -0.04649  -0.25738   0.11907
  14   30411.0    328.8   0.020391506   0.22075   0.30187   0.03361  -0.35846
  15   30518.2    327.7   0.029577514   0.31906  -0.36078   0.00411   0.43461
  16   14701.6    680.2   spin forbidden (mult=3)
  17   16956.2    589.8   spin forbidden (mult=3)
  18   18570.3    538.5   spin forbidden (mult=3)
  19   20683.1    483.5   spin forbidden (mult=3)
  20   22210.9    450.2   spin forbidden (mult=3)
  21   22890.7    436.9   spin forbidden (mult=3)
  22   23055.2    433.7   spin forbidden (mult=3)
  23   26305.0    380.2   spin forbidden (mult=3)
  24   26605.8    375.9   spin forbidden (mult=3)
  25   26651.8    375.2   spin forbidden (mult=3)
  26   26898.5    371.8   spin forbidden (mult=3)
  27   27028.5    370.0   spin forbidden (mult=3)
  28   28147.0    355.3   spin forbidden (mult=3)
  29   28394.6    352.2   spin forbidden (mult=3)
  30   29047.8    344.3   spin forbidden (mult=3)

Dispersion correction           -0.152512434
FINAL SINGLE POINT ENERGY     -1955.243992745397

CARTESIAN COORDINATES (ANGSTROEM)
---------------------------------
  H      2.893972   -1.699299   -1.793161
  C      2.019850   -2.284885   -2.020601
  C      0.758370   -1.777114   -1.784241
  O      0.687959   -0.482325   -1.299784
  C     -0.156877   -0.143839   -0.312144
  O     -0.879971   -0.927582    0.261448
  C     -0.073254    1.301692    0.013154
  C      0.836100    2.138001   -0.625069
  H      1.497331    1.725760   -1.366104
  C      0.857182    3.493019   -0.301438
  C      1.785140    4.466673   -0.949973
  O      1.672561    5.662372   -0.749607
  C      2.851611    3.904931   -1.842652
  H      3.428957    3.156531   -1.307287
  H      2.390450    3.432537   -2.706385
  H      3.503252    4.706700   -2.177829
  C     -0.017128    3.978612    0.665260
  H      0.010133    5.034025    0.893771
  C     -0.912397    3.141488    1.335042
  N     -1.760526    3.726844    2.267668
  H     -1.904020    4.722072    2.149181
  C     -2.416519    3.221339    3.348791
  S     -3.535639    4.228525    4.089708
  N     -2.133179    1.994111    3.775987
  H     -1.344771    1.515443    3.362126
  C     -2.702503    1.356582    4.941238
  H     -3.471974    2.020095    5.339516
  H     -3.171012    0.419047    4.628125
  C     -1.632283    1.080527    5.992949
  H     -0.861392    0.430702    5.587188
  H     -1.175380    2.011495    6.318240
  H     -2.083463    0.594070    6.851470
  C     -0.946157    1.793921    0.982791
  H     -1.666449    1.109438    1.401271
  C     -0.389913   -2.510868   -2.075904
  H     -1.359863   -2.084259   -1.885659
  C     -0.218977   -3.778113   -2.595986
  O     -1.293970   -4.631181   -2.936655
  C     -2.531732   -4.280253   -2.691359
  F     -2.949506   -3.179789   -3.349500
  F     -3.344549   -5.266861   -3.070889
  F     -2.806930   -4.043036   -1.395066
  C      1.032314   -4.320695   -2.840804
  H      1.082068   -5.314116   -3.249126
  C      2.169799   -3.567874   -2.557088
  O      3.432273   -3.983115   -2.757041
  C      3.649870   -5.280924   -3.291025
  H      3.244100   -6.048598   -2.629595
  H      3.207528   -5.374065   -4.284663
  H      4.729494   -5.387740   -3.358300

 Multiplicity           Mult            ....    1
 Number of Electrons    NEL             ....  236
 Basis Dimension        Dim             ....  533

ORBITAL ENERGIES
----------------

  NO   OCC          E(Eh)            E(eV)
   0   2.0000     -87.988183     -2394.2802
   1   2.0000     -24.309515      -661.4955
   2   2.0000     -24.308134      -661.4580
   3   2.0000     -24.307338      -661.4363
   4   2.0000     -18.850492      -512.9480
   5   2.0000     -18.841159      -512.6940
   6   2.0000     -18.812487      -511.9138
   7   2.0000     -18.771160      -510.7892
   8   2.0000     -18.764727      -510.6142
   9   2.0000     -14.056043      -382.4844
  10   2.0000     -14.048030      -382.2663
  11   2.0000     -10.191662      -277.3292
  12   2.0000     -10.043663      -273.3020
  13   2.0000     -10.014789      -272.5163
  14   2.0000      -9.995112      -271.9808
  15   2.0000      -9.994557      -271.9657
  16   2.0000      -9.986928      -271.7581
  17   2.0000      -9.981850      -271.6199
  18   2.0000      -9.971918      -271.3497
  19   2.0000      -9.955082      -270.8916
  20   2.0000      -9.938114      -270.4298
  21   2.0000      -9.937289      -270.4074
  22   2.0000      -9.931400      -270.2471
  23   2.0000      -9.928345      -270.1640
  24   2.0000      -9.927223      -270.1335
  25   2.0000      -9.926788      -270.1216
  26   2.0000      -9.919240      -269.9162
  27   2.0000      -9.916371      -269.8382
  28   2.0000      -9.913524      -269.7607
  29   2.0000      -9.902823      -269.4695
  30   2.0000      -9.897161      -269.3154
  31   2.0000      -7.622139      -207.4089
  32   2.0000      -5.645418      -153.6196
  33   2.0000      -5.638452      -153.4301
  34   2.0000      -5.635095      -153.3387
  35   2.0000      -1.216781       -33.1103
  36   2.0000      -1.114453       -30.3258
  37   2.0000      -1.109652       -30.1952
  38   2.0000      -1.035378       -28.1741
  39   2.0000      -1.028616       -27.9901
  40   2.0000      -0.984943       -26.8017
  41   2.0000      -0.950074       -25.8528
  42   2.0000      -0.942753       -25.6536
  43   2.0000      -0.917852       -24.9760
  44   2.0000      -0.852905       -23.2087
  45   2.0000      -0.802437       -21.8354
  46   2.0000      -0.795785       -21.6544
  47   2.0000      -0.730296       -19.8724
  48   2.0000      -0.719022       -19.5656
  49   2.0000      -0.713975       -19.4282
  50   2.0000      -0.698471       -19.0064
  51   2.0000      -0.682080       -18.5603
  52   2.0000      -0.668220       -18.1832
  53   2.0000      -0.652295       -17.7499
  54   2.0000      -0.645211       -17.5571
  55   2.0000      -0.641990       -17.4694
  56   2.0000      -0.617160       -16.7938
  57   2.0000      -0.593834       -16.1591
  58   2.0000      -0.590926       -16.0799
  59   2.0000      -0.576982       -15.7005
  60   2.0000      -0.570053       -15.5119
  61   2.0000      -0.551156       -14.9977
  62   2.0000      -0.546725       -14.8772
  63   2.0000      -0.540119       -14.6974
  64   2.0000      -0.528913       -14.3925
  65   2.0000      -0.522268       -14.2116
  66   2.0000      -0.511414       -13.9163
  67   2.0000      -0.492581       -13.4038
  68   2.0000      -0.467195       -12.7130
  69   2.0000      -0.466558       -12.6957
  70   2.0000      -0.463114       -12.6020
  71   2.0000      -0.456707       -12.4276
  72   2.0000      -0.452990       -12.3265
  73   2.0000      -0.445709       -12.1284
  74   2.0000      -0.438507       -11.9324
  75   2.0000      -0.428422       -11.6580
  76   2.0000      -0.422773       -11.5042
  77   2.0000      -0.421517       -11.4701
  78   2.0000      -0.415057       -11.2943
  79   2.0000      -0.413873       -11.2621
  80   2.0000      -0.412674       -11.2294
  81   2.0000      -0.409987       -11.1563
  82   2.0000      -0.406002       -11.0479
  83   2.0000      -0.403593       -10.9823
  84   2.0000      -0.402829       -10.9615
  85   2.0000      -0.392983       -10.6936
  86   2.0000      -0.384248       -10.4559
  87   2.0000      -0.381848       -10.3906
  88   2.0000      -0.373210       -10.1556
  89   2.0000      -0.372128       -10.1261
  90   2.0000      -0.369132       -10.0446
  91   2.0000      -0.361748        -9.8437
  92   2.0000      -0.360038        -9.7971
  93   2.0000      -0.356105        -9.6901
  94   2.0000      -0.349873        -9.5205
  95   2.0000      -0.346307        -9.4235
  96   2.0000      -0.345642        -9.4054
  97   2.0000      -0.343449        -9.3457
  98   2.0000      -0.338921        -9.2225
  99   2.0000      -0.335653        -9.1336
 100   2.0000      -0.333725        -9.0811
 101   2.0000      -0.330886        -9.0039
 102   2.0000      -0.326514        -8.8849
 103   2.0000      -0.321572        -8.7504
 104   2.0000      -0.318169        -8.6578
 105   2.0000      -0.308842        -8.4040
 106   2.0000      -0.304004        -8.2724
 107   2.0000      -0.295379        -8.0377
 108   2.0000      -0.275808        -7.5051
 109   2.0000      -0.273713        -7.4481
 110   2.0000      -0.250994        -6.8299
 111   2.0000      -0.247411        -6.7324
 112   2.0000      -0.226348        -6.1593
 113   2.0000      -0.212947        -5.7946
 114   2.0000      -0.211837        -5.7644
 115   2.0000      -0.206355        -5.6152
 116   2.0000      -0.190881        -5.1941
 117   2.0000      -0.181376        -4.9355
 118   0.0000      -0.101768        -2.7693
 119   0.0000      -0.084172        -2.2904
 120   0.0000      -0.047758        -1.2996
 121   0.0000      -0.040291        -1.0964
 122   0.0000      -0.031896        -0.8679

MULLIKEN ATOMIC CHARGES
-----------------------
   0 H :   -0.015627
   1 C :   -0.017877
   2 C :    0.173150
   3 O :   -0.234180
   4 C :    0.254535
   5 O :   -0.221508
   6 C :   -0.067633
   7 C :    0.016721
   8 H :    0.002318
   9 C :    0.012107
  10 C :   -0.008605
  11 O :   -0.216951
  12 C :    0.069121
  13 H :    0.059436
  14 H :    0.064987
  15 H :    0.025012
  16 C :   -0.018706
  17 H :   -0.014412
  18 C :    0.133191
  19 N :   -0.006523
  20 H :    0.147318
  21 C :    0.018274
  22 S :   -0.417239
  23 N :   -0.115007
  24 H :    0.161017
  25 C :    0.114493
  26 H :    0.018774
  27 H :    0.034444
  28 C :   -0.032955
  29 H :    0.034101
  30 H :    0.027291
  31 H :    0.032322
  32 C :   -0.045857
  33 H :   -0.002625
  34 C :   -0.053286
  35 H :    0.002043
  36 C :    0.172470
  37 O :   -0.214370
  38 C :    0.474362
  39 F :   -0.162386
  40 F :   -0.135158
  41 F :   -0.160129
  42 C :   -0.085364
  43 H :   -0.002660
  44 C :    0.194780
  45 O :   -0.293776
  46 C :    0.162177
  47 H :    0.044875
  48 H :    0.044969
  49 H :    0.048546
Sum of atomic charges:   -0.0000000

LOEWDIN ATOMIC CHARGES
----------------------
   0 H :    0.041935
   1 C :   -0.061483
   2 C :    0.054511
   3 O :   -0.011127
   4 C :    0.082638
   5 O :   -0.169420
   6 C :   -0.063849
   7 C :    0.010053
   8 H :    0.035956
   9 C :   -0.062852
  10 C :    0.079344
  11 O :   -0.164726
  12 C :   -0.070066
  13 H :    0.052281
  14 H :    0.056558
  15 H :    0.036871
  16 C :    0.016982
  17 H :    0.034895
  18 C :    0.012995
  19 N :    0.044590
  20 H :    0.097137
  21 C :   -0.093942
  22 S :   -0.251332
  23 N :    0.043607
  24 H :    0.091090
  25 C :    0.034053
  26 H :    0.010666
  27 H :    0.029630
  28 C :   -0.057610
  29 H :    0.027618
  30 H :    0.026935
  31 H :    0.033692
  32 C :   -0.006099
  33 H :    0.034916
  34 C :   -0.091189
  35 H :    0.034314
  36 C :    0.065822
  37 O :   -0.032824
  38 C :    0.095744
  39 F :   -0.059205
  40 F :   -0.037285
  41 F :   -0.056562
  42 C :   -0.084119
  43 H :    0.044923
  44 C :    0.048003
  45 O :   -0.070736
  46 C :    0.084181
  47 H :    0.024499
  48 H :    0.024507
  49 H :    0.033482

  Mayer bond orders larger than 0.100000
B(  0-H ,  1-C ) :   1.0125 B(  1-C ,  2-C ) :   1.3925 B(  1-C , 44-C ) :   1.2773
B(  2-C ,  3-O ) :   0.9533 B(  2-C , 34-C ) :   1.2856 B(  3-O ,  4-C ) :   1.1568
B(  4-C ,  5-O ) :   2.0468 B(  4-C ,  6-C ) :   0.9328 B(  6-C ,  7-C ) :   1.3296
B(  6-C , 32-C ) :   1.3553 B(  7-C ,  8-H ) :   0.9856 B(  7-C ,  9-C ) :   1.3103
B(  9-C , 10-C ) :   0.9126 B(  9-C , 16-C ) :   1.3569 B( 10-C , 11-O ) :   2.1116
B( 10-C , 12-C ) :   1.1000 B( 12-C , 13-H ) :   0.9307 B( 12-C , 14-H ) :   0.9186
B( 12-C , 15-H ) :   0.9375 B( 16-C , 17-H ) :   0.9936 B( 16-C , 18-C ) :   1.2916
B( 18-C , 19-N ) :   1.0972 B( 18-C , 32-C ) :   1.2833 B( 19-N , 20-H ) :   0.8874
B( 19-N , 21-C ) :   1.1901 B( 21-C , 22-S ) :   1.4320 B( 21-C , 23-N ) :   1.3447
B( 22-S , 26-H ) :   0.1011 B( 23-N , 24-H ) :   0.8999 B( 23-N , 25-C ) :   0.9756
B( 25-C , 26-H ) :   0.9132 B( 25-C , 27-H ) :   0.9379 B( 25-C , 28-C ) :   1.1176
B( 28-C , 29-H ) :   0.9686 B( 28-C , 30-H ) :   0.9668 B( 28-C , 31-H ) :   0.9606
B( 32-C , 33-H ) :   0.9855 B( 34-C , 35-H ) :   0.9851 B( 34-C , 36-C ) :   1.3155
B( 36-C , 37-O ) :   0.9719 B( 36-C , 42-C ) :   1.3388 B( 37-O , 38-C ) :   1.1941
B( 38-C , 39-F ) :   1.1180 B( 38-C , 40-F ) :   1.1688 B( 38-C , 41-F ) :   1.1255
B( 42-C , 43-H ) :   1.0064 B( 42-C , 44-C ) :   1.2656 B( 44-C , 45-O ) :   1.1707
B( 45-O , 46-C ) :   0.9423 B( 46-C , 47-H ) :   0.9653 B( 46-C , 48-H ) :   0.9654
B( 46-C , 49-H ) :   0.9731

Dispersion correction           -0.152512434
FINAL SINGLE POINT ENERGY     -1955.327383653241

DIPOLE MOMENT
-------------
                                X             Y             Z
Electronic contribution:    -21.04444     -20.83895     -23.47044
Nuclear contribution   :     24.44929      18.16857      22.05824
                        -----------------------------------------
Total Dipole Moment    :      3.40485      -2.67038      -1.41220
                        -----------------------------------------
Magnitude (a.u.)       :      4.55173
Magnitude (Debye)      :     11.56957

Rotational constants in cm-1:     0.005146     0.001994     0.001632
Rotational constants in MHz :   154.269735    59.764594    48.940841

                             ****ORCA TERMINATED NORMALLY****
TOTAL RUN TIME: 0 days 0 hours 33 minutes 5 seconds 886 msec
