                         Program Version 5.0.3 -  RELEASE  -
|  1> ! revPBE def2-SVP def2/J CPCMC(Toluene) Hirshfeld CHELPG RIJONX D3 Energy
|  2> %pal
|  3> nprocs 1
|  4> end
|  5> %maxcore 3000
|  6> %elprop
|  7> Polar 1
|  8> Quadrupole True
|  9> end
| 10> %TDDFT
| 11> NRoots 15
| 12> Triplets True
| 13> end
| 14> * xyzfile 0 1 /home/sk77/PycharmProjects/omg_database_publication/run_calculation/calculation_results/pareto_greedy/0/reaction_10005258/opt_n_1/conformer_7/geometry.xtbopt.xyz
| 15>
| 16> # for cosmo solvent -> Flory Huggins
| 17> $new_job
| 18> ! revPBE def2-SVP def2/J CPCMC Hirshfeld CHELPG RIJONX D3 Energy
| 19> %base "/home/sk77/PycharmProjects/omg_database_publication/run_calculation/calculation_results/pareto_greedy/0/reaction_10005258/opt_n_1/conformer_7/property_cosmo"
| 20> %pal
| 21> nprocs 1
| 22> end
| 23> %maxcore 3000
| 24> * xyzfile 0 1 /home/sk77/PycharmProjects/omg_database_publication/run_calculation/calculation_results/pareto_greedy/0/reaction_10005258/opt_n_1/conformer_7/geometry.xtbopt.xyz
| 25>
| 26>                          ****END OF INPUT****
 Total Charge           Charge          ....    0
 Multiplicity           Mult            ....    1
 Number of Electrons    NEL             ....  236

-----------------------------------------------------------------------------
         ABSORPTION SPECTRUM VIA TRANSITION ELECTRIC DIPOLE MOMENTS
-----------------------------------------------------------------------------
State   Energy    Wavelength  fosc         T2        TX        TY        TZ
        (cm-1)      (nm)                 (au**2)    (au)      (au)      (au)
-----------------------------------------------------------------------------
   1   15058.7    664.1   0.001274567   0.02786  -0.09873   0.13123   0.02993
   2   18121.6    551.8   0.004839497   0.08792   0.11965  -0.27080   0.01642
   3   19222.2    520.2   0.004886095   0.08368  -0.26853   0.03250   0.10255
   4   22630.5    441.9   0.038159130   0.55511   0.62043  -0.32099  -0.25911
   5   22760.2    439.4   0.014694913   0.21255  -0.06792   0.44906  -0.07930
   6   24408.8    409.7   0.000332946   0.00449  -0.00794   0.06615  -0.00719
   7   25834.5    387.1   0.059054741   0.75254   0.27836  -0.81601   0.09582
   8   26660.1    375.1   0.014571124   0.17993   0.35696   0.13622  -0.18426
   9   26989.5    370.5   0.039133187   0.47734   0.38507  -0.57097  -0.05529
  10   27625.3    362.0   0.006734421   0.08025  -0.26729   0.02037   0.09163
  11   28292.2    353.5   0.000603640   0.00702  -0.08256   0.01369  -0.00451
  12   30041.5    332.9   0.014527364   0.15920  -0.28098  -0.27693   0.05964
  13   30107.6    332.1   0.001075077   0.01176  -0.05858  -0.08864   0.02163
  14   30759.5    325.1   0.000737099   0.00789  -0.07180   0.05092  -0.01190
  15   30833.6    324.3   0.085798167   0.91607   0.72380  -0.61191  -0.13323
  16   14910.8    670.7   spin forbidden (mult=3)
  17   17401.6    574.7   spin forbidden (mult=3)
  18   18820.5    531.3   spin forbidden (mult=3)
  19   21147.4    472.9   spin forbidden (mult=3)
  20   22092.9    452.6   spin forbidden (mult=3)
  21   22221.8    450.0   spin forbidden (mult=3)
  22   22789.8    438.8   spin forbidden (mult=3)
  23   25526.8    391.7   spin forbidden (mult=3)
  24   25891.6    386.2   spin forbidden (mult=3)
  25   26415.1    378.6   spin forbidden (mult=3)
  26   26529.6    376.9   spin forbidden (mult=3)
  27   27071.5    369.4   spin forbidden (mult=3)
  28   28279.3    353.6   spin forbidden (mult=3)
  29   29301.3    341.3   spin forbidden (mult=3)
  30   29650.3    337.3   spin forbidden (mult=3)

Dispersion correction           -0.152651964
FINAL SINGLE POINT ENERGY     -1955.242561337951

CARTESIAN COORDINATES (ANGSTROEM)
---------------------------------
  H      3.863526   -1.037703   -0.786515
  C      3.457957   -1.987584   -0.484836
  C      2.147180   -2.017442   -0.020730
  O      1.530177   -0.782338   -0.022610
  C      0.310248   -0.498307    0.449012
  O     -0.445649   -1.288039    0.973245
  C     -0.023244    0.936093    0.254067
  C      0.853710    1.825312   -0.352630
  H      1.813326    1.497214   -0.716472
  C      0.504917    3.169756   -0.480331
  C      1.498489    4.088314   -1.110718
  O      2.556544    3.660889   -1.535691
  C      1.140960    5.543269   -1.194958
  H      0.250528    5.668011   -1.805904
  H      0.939267    5.934609   -0.201589
  H      1.965633    6.090772   -1.642697
  C     -0.734451    3.601456   -0.021570
  H     -1.021729    4.636146   -0.106325
  C     -1.638019    2.707471    0.561235
  N     -2.847790    3.222589    1.013852
  H     -2.844769    4.210395    1.235451
  C     -4.042064    2.621362    1.274569
  S     -5.158336    3.502296    2.164572
  N     -4.276284    1.402779    0.793327
  H     -3.613745    1.015926    0.134663
  C     -5.512677    0.668177    0.930891
  H     -5.280523   -0.323692    1.327780
  H     -6.136937    1.200860    1.650007
  C     -6.230673    0.539493   -0.409274
  H     -6.472686    1.524230   -0.801018
  H     -5.603406    0.015989   -1.126154
  H     -7.152092   -0.017852   -0.275302
  C     -1.262248    1.375318    0.718047
  H     -1.885655    0.662585    1.233806
  C      1.546949   -3.203907    0.383057
  H      0.532249   -3.202688    0.740181
  C      2.306434   -4.361447    0.310497
  O      1.815762   -5.629723    0.697751
  C      0.546288   -5.802494    0.968276
  F     -0.297444   -5.428262   -0.012584
  F      0.319481   -7.100331    1.178567
  F      0.108423   -5.168052    2.074272
  C      3.608422   -4.363135   -0.142379
  H      4.166188   -5.281669   -0.185391
  C      4.200274   -3.162700   -0.549411
  O      5.470967   -3.246764   -0.982358
  C      6.119932   -2.067484   -1.435974
  H      5.597032   -1.637685   -2.292609
  H      6.193593   -1.327970   -0.636432
  H      7.115975   -2.384064   -1.734618

 Multiplicity           Mult            ....    1
 Number of Electrons    NEL             ....  236
 Basis Dimension        Dim             ....  533

ORBITAL ENERGIES
----------------

  NO   OCC          E(Eh)            E(eV)
   0   2.0000     -87.988569     -2394.2907
   1   2.0000     -24.308914      -661.4792
   2   2.0000     -24.307796      -661.4488
   3   2.0000     -24.307180      -661.4320
   4   2.0000     -18.849951      -512.9332
   5   2.0000     -18.845409      -512.8097
   6   2.0000     -18.812122      -511.9039
   7   2.0000     -18.773375      -510.8495
   8   2.0000     -18.764329      -510.6034
   9   2.0000     -14.055465      -382.4686
  10   2.0000     -14.047646      -382.2559
  11   2.0000     -10.191349      -277.3207
  12   2.0000     -10.045899      -273.3628
  13   2.0000     -10.014435      -272.5066
  14   2.0000      -9.994841      -271.9734
  15   2.0000      -9.993586      -271.9393
  16   2.0000      -9.991072      -271.8709
  17   2.0000      -9.981664      -271.6149
  18   2.0000      -9.971484      -271.3379
  19   2.0000      -9.954893      -270.8864
  20   2.0000      -9.938023      -270.4274
  21   2.0000      -9.936051      -270.3737
  22   2.0000      -9.929859      -270.2052
  23   2.0000      -9.929471      -270.1946
  24   2.0000      -9.927875      -270.1512
  25   2.0000      -9.923055      -270.0200
  26   2.0000      -9.916893      -269.8524
  27   2.0000      -9.914699      -269.7927
  28   2.0000      -9.914220      -269.7797
  29   2.0000      -9.902789      -269.4686
  30   2.0000      -9.896757      -269.3045
  31   2.0000      -7.622494      -207.4186
  32   2.0000      -5.645744      -153.6285
  33   2.0000      -5.638871      -153.4415
  34   2.0000      -5.635428      -153.3478
  35   2.0000      -1.216328       -33.0980
  36   2.0000      -1.113720       -30.3059
  37   2.0000      -1.109402       -30.1884
  38   2.0000      -1.037059       -28.2198
  39   2.0000      -1.028240       -27.9798
  40   2.0000      -0.984212       -26.7818
  41   2.0000      -0.949691       -25.8424
  42   2.0000      -0.946448       -25.7542
  43   2.0000      -0.917628       -24.9699
  44   2.0000      -0.852352       -23.1937
  45   2.0000      -0.802253       -21.8304
  46   2.0000      -0.795057       -21.6346
  47   2.0000      -0.733311       -19.9544
  48   2.0000      -0.715814       -19.4783
  49   2.0000      -0.712973       -19.4010
  50   2.0000      -0.701853       -19.0984
  51   2.0000      -0.680964       -18.5300
  52   2.0000      -0.665700       -18.1146
  53   2.0000      -0.654203       -17.8018
  54   2.0000      -0.648605       -17.6494
  55   2.0000      -0.639166       -17.3926
  56   2.0000      -0.619913       -16.8687
  57   2.0000      -0.593574       -16.1520
  58   2.0000      -0.587891       -15.9973
  59   2.0000      -0.577225       -15.7071
  60   2.0000      -0.571622       -15.5546
  61   2.0000      -0.549989       -14.9660
  62   2.0000      -0.546407       -14.8685
  63   2.0000      -0.541671       -14.7396
  64   2.0000      -0.527946       -14.3661
  65   2.0000      -0.519521       -14.1369
  66   2.0000      -0.513975       -13.9860
  67   2.0000      -0.493114       -13.4183
  68   2.0000      -0.466200       -12.6859
  69   2.0000      -0.465060       -12.6549
  70   2.0000      -0.461580       -12.5602
  71   2.0000      -0.456463       -12.4210
  72   2.0000      -0.449859       -12.2413
  73   2.0000      -0.443218       -12.0606
  74   2.0000      -0.439788       -11.9672
  75   2.0000      -0.430773       -11.7219
  76   2.0000      -0.425237       -11.5713
  77   2.0000      -0.421748       -11.4763
  78   2.0000      -0.417510       -11.3610
  79   2.0000      -0.414048       -11.2668
  80   2.0000      -0.412376       -11.2213
  81   2.0000      -0.410790       -11.1782
  82   2.0000      -0.405232       -11.0269
  83   2.0000      -0.403417       -10.9775
  84   2.0000      -0.402855       -10.9622
  85   2.0000      -0.392508       -10.6807
  86   2.0000      -0.384790       -10.4707
  87   2.0000      -0.381860       -10.3909
  88   2.0000      -0.372384       -10.1331
  89   2.0000      -0.370925       -10.0934
  90   2.0000      -0.366214        -9.9652
  91   2.0000      -0.361023        -9.8239
  92   2.0000      -0.358280        -9.7493
  93   2.0000      -0.355782        -9.6813
  94   2.0000      -0.349106        -9.4997
  95   2.0000      -0.345635        -9.4052
  96   2.0000      -0.344575        -9.3764
  97   2.0000      -0.340321        -9.2606
  98   2.0000      -0.338458        -9.2099
  99   2.0000      -0.336239        -9.1495
 100   2.0000      -0.333732        -9.0813
 101   2.0000      -0.331994        -9.0340
 102   2.0000      -0.324270        -8.8238
 103   2.0000      -0.323578        -8.8050
 104   2.0000      -0.317845        -8.6490
 105   2.0000      -0.316011        -8.5991
 106   2.0000      -0.307992        -8.3809
 107   2.0000      -0.295439        -8.0393
 108   2.0000      -0.275608        -7.4997
 109   2.0000      -0.272163        -7.4059
 110   2.0000      -0.252152        -6.8614
 111   2.0000      -0.244902        -6.6641
 112   2.0000      -0.224459        -6.1078
 113   2.0000      -0.212543        -5.7836
 114   2.0000      -0.210411        -5.7256
 115   2.0000      -0.207073        -5.6348
 116   2.0000      -0.191617        -5.2142
 117   2.0000      -0.181056        -4.9268
 118   0.0000      -0.101611        -2.7650
 119   0.0000      -0.084954        -2.3117
 120   0.0000      -0.049341        -1.3426
 121   0.0000      -0.037675        -1.0252
 122   0.0000      -0.030743        -0.8366

MULLIKEN ATOMIC CHARGES
-----------------------
   0 H :   -0.001572
   1 C :   -0.098238
   2 C :    0.190100
   3 O :   -0.218549
   4 C :    0.262701
   5 O :   -0.219126
   6 C :   -0.060460
   7 C :    0.004662
   8 H :   -0.014363
   9 C :    0.013044
  10 C :   -0.011307
  11 O :   -0.215813
  12 C :    0.067256
  13 H :    0.063324
  14 H :    0.061526
  15 H :    0.024403
  16 C :   -0.012784
  17 H :    0.003264
  18 C :    0.127684
  19 N :   -0.011428
  20 H :    0.148791
  21 C :    0.020860
  22 S :   -0.414686
  23 N :   -0.116165
  24 H :    0.162947
  25 C :    0.112644
  26 H :    0.033823
  27 H :    0.018581
  28 C :   -0.029180
  29 H :    0.025612
  30 H :    0.033333
  31 H :    0.031689
  32 C :   -0.043488
  33 H :   -0.003653
  34 C :   -0.092351
  35 H :   -0.001981
  36 C :    0.191835
  37 O :   -0.216551
  38 C :    0.474402
  39 F :   -0.161469
  40 F :   -0.136186
  41 F :   -0.160958
  42 C :   -0.025799
  43 H :   -0.012636
  44 C :    0.201338
  45 O :   -0.295475
  46 C :    0.162931
  47 H :    0.044479
  48 H :    0.044894
  49 H :    0.048095
Sum of atomic charges:    0.0000000

LOEWDIN ATOMIC CHARGES
----------------------
   0 H :    0.043569
   1 C :   -0.084596
   2 C :    0.064648
   3 O :    0.001011
   4 C :    0.084584
   5 O :   -0.164050
   6 C :   -0.064367
   7 C :    0.018209
   8 H :    0.027993
   9 C :   -0.063377
  10 C :    0.078957
  11 O :   -0.164509
  12 C :   -0.071003
  13 H :    0.054978
  14 H :    0.053236
  15 H :    0.036775
  16 C :    0.007456
  17 H :    0.043008
  18 C :    0.014420
  19 N :    0.043810
  20 H :    0.097341
  21 C :   -0.094773
  22 S :   -0.249323
  23 N :    0.044550
  24 H :    0.092781
  25 C :    0.033742
  26 H :    0.029781
  27 H :    0.011374
  28 C :   -0.057799
  29 H :    0.026327
  30 H :    0.027429
  31 H :    0.033259
  32 C :   -0.007773
  33 H :    0.033849
  34 C :   -0.102185
  35 H :    0.025960
  36 C :    0.063721
  37 O :   -0.033141
  38 C :    0.095744
  39 F :   -0.056987
  40 F :   -0.038531
  41 F :   -0.059010
  42 C :   -0.062105
  43 H :    0.042849
  44 C :    0.048045
  45 O :   -0.072066
  46 C :    0.084034
  47 H :    0.024476
  48 H :    0.024319
  49 H :    0.033360

  Mayer bond orders larger than 0.100000
B(  0-H ,  1-C ) :   1.0061 B(  1-C ,  2-C ) :   1.3183 B(  1-C , 44-C ) :   1.2642
B(  2-C ,  3-O ) :   1.0046 B(  2-C , 34-C ) :   1.3230 B(  3-O ,  4-C ) :   1.1638
B(  4-C ,  5-O ) :   2.0169 B(  4-C ,  6-C ) :   0.9324 B(  6-C ,  7-C ) :   1.3274
B(  6-C , 32-C ) :   1.3431 B(  7-C ,  8-H ) :   0.9961 B(  7-C ,  9-C ) :   1.3085
B(  9-C , 10-C ) :   0.9126 B(  9-C , 16-C ) :   1.3552 B( 10-C , 11-O ) :   2.1113
B( 10-C , 12-C ) :   1.1031 B( 12-C , 13-H ) :   0.9230 B( 12-C , 14-H ) :   0.9262
B( 12-C , 15-H ) :   0.9371 B( 16-C , 17-H ) :   0.9861 B( 16-C , 18-C ) :   1.2949
B( 18-C , 19-N ) :   1.0963 B( 18-C , 32-C ) :   1.2990 B( 19-N , 20-H ) :   0.8876
B( 19-N , 21-C ) :   1.1892 B( 21-C , 22-S ) :   1.4344 B( 21-C , 23-N ) :   1.3408
B( 23-N , 24-H ) :   0.9009 B( 23-N , 25-C ) :   0.9791 B( 25-C , 26-H ) :   0.9381
B( 25-C , 27-H ) :   0.9137 B( 25-C , 28-C ) :   1.1173 B( 28-C , 29-H ) :   0.9659
B( 28-C , 30-H ) :   0.9690 B( 28-C , 31-H ) :   0.9606 B( 32-C , 33-H ) :   0.9858
B( 34-C , 35-H ) :   0.9780 B( 34-C , 36-C ) :   1.2557 B( 36-C , 37-O ) :   0.9624
B( 36-C , 42-C ) :   1.3855 B( 37-O , 38-C ) :   1.1969 B( 38-C , 39-F ) :   1.1214
B( 38-C , 40-F ) :   1.1677 B( 38-C , 41-F ) :   1.1173 B( 42-C , 43-H ) :   1.0127
B( 42-C , 44-C ) :   1.2826 B( 44-C , 45-O ) :   1.1690 B( 45-O , 46-C ) :   0.9427
B( 46-C , 47-H ) :   0.9656 B( 46-C , 48-H ) :   0.9653 B( 46-C , 49-H ) :   0.9729

Dispersion correction           -0.152651964
FINAL SINGLE POINT ENERGY     -1955.326858625260

DIPOLE MOMENT
-------------
                                X             Y             Z
Electronic contribution:      8.92945     -39.87323      11.13479
Nuclear contribution   :     -7.29233      41.09136     -13.05653
                        -----------------------------------------
Total Dipole Moment    :      1.63712       1.21814      -1.92173
                        -----------------------------------------
Magnitude (a.u.)       :      2.80305
Magnitude (Debye)      :      7.12479

Rotational constants in cm-1:     0.004965     0.002184     0.001568
Rotational constants in MHz :   148.855187    65.468803    47.005859

                             ****ORCA TERMINATED NORMALLY****
TOTAL RUN TIME: 0 days 0 hours 36 minutes 7 seconds 304 msec
